<VTKFile type='UnstructuredGrid' version='0.1' byte_order='BigEndian'> 
<UnstructuredGrid> 
<Piece NumberOfPoints='  9409 ' NumberOfCells='  2304 '> 
<Points> 
<DataArray type='Float32' NumberOfComponents='3' Format='ascii'> 
  0.000000   0.000000   0.000000 
  0.010417   0.000000   0.000000 
  0.020833   0.000000   0.000000 
  0.031250   0.000000   0.000000 
  0.041667   0.000000   0.000000 
  0.052083   0.000000   0.000000 
  0.062500   0.000000   0.000000 
  0.072917   0.000000   0.000000 
  0.083333   0.000000   0.000000 
  0.093750   0.000000   0.000000 
  0.104167   0.000000   0.000000 
  0.114583   0.000000   0.000000 
  0.125000   0.000000   0.000000 
  0.135417   0.000000   0.000000 
  0.145833   0.000000   0.000000 
  0.156250   0.000000   0.000000 
  0.166667   0.000000   0.000000 
  0.177083   0.000000   0.000000 
  0.187500   0.000000   0.000000 
  0.197917   0.000000   0.000000 
  0.208333   0.000000   0.000000 
  0.218750   0.000000   0.000000 
  0.229167   0.000000   0.000000 
  0.239583   0.000000   0.000000 
  0.250000   0.000000   0.000000 
  0.260417   0.000000   0.000000 
  0.270833   0.000000   0.000000 
  0.281250   0.000000   0.000000 
  0.291667   0.000000   0.000000 
  0.302083   0.000000   0.000000 
  0.312500   0.000000   0.000000 
  0.322917   0.000000   0.000000 
  0.333333   0.000000   0.000000 
  0.343750   0.000000   0.000000 
  0.354167   0.000000   0.000000 
  0.364583   0.000000   0.000000 
  0.375000   0.000000   0.000000 
  0.385417   0.000000   0.000000 
  0.395833   0.000000   0.000000 
  0.406250   0.000000   0.000000 
  0.416667   0.000000   0.000000 
  0.427083   0.000000   0.000000 
  0.437500   0.000000   0.000000 
  0.447917   0.000000   0.000000 
  0.458333   0.000000   0.000000 
  0.468750   0.000000   0.000000 
  0.479167   0.000000   0.000000 
  0.489583   0.000000   0.000000 
  0.500000   0.000000   0.000000 
  0.510417   0.000000   0.000000 
  0.520833   0.000000   0.000000 
  0.531250   0.000000   0.000000 
  0.541667   0.000000   0.000000 
  0.552083   0.000000   0.000000 
  0.562500   0.000000   0.000000 
  0.572917   0.000000   0.000000 
  0.583333   0.000000   0.000000 
  0.593750   0.000000   0.000000 
  0.604167   0.000000   0.000000 
  0.614583   0.000000   0.000000 
  0.625000   0.000000   0.000000 
  0.635417   0.000000   0.000000 
  0.645833   0.000000   0.000000 
  0.656250   0.000000   0.000000 
  0.666667   0.000000   0.000000 
  0.677083   0.000000   0.000000 
  0.687500   0.000000   0.000000 
  0.697917   0.000000   0.000000 
  0.708333   0.000000   0.000000 
  0.718750   0.000000   0.000000 
  0.729167   0.000000   0.000000 
  0.739583   0.000000   0.000000 
  0.750000   0.000000   0.000000 
  0.760417   0.000000   0.000000 
  0.770833   0.000000   0.000000 
  0.781250   0.000000   0.000000 
  0.791667   0.000000   0.000000 
  0.802083   0.000000   0.000000 
  0.812500   0.000000   0.000000 
  0.822917   0.000000   0.000000 
  0.833333   0.000000   0.000000 
  0.843750   0.000000   0.000000 
  0.854167   0.000000   0.000000 
  0.864583   0.000000   0.000000 
  0.875000   0.000000   0.000000 
  0.885417   0.000000   0.000000 
  0.895833   0.000000   0.000000 
  0.906250   0.000000   0.000000 
  0.916667   0.000000   0.000000 
  0.927083   0.000000   0.000000 
  0.937500   0.000000   0.000000 
  0.947917   0.000000   0.000000 
  0.958333   0.000000   0.000000 
  0.968750   0.000000   0.000000 
  0.979167   0.000000   0.000000 
  0.989583   0.000000   0.000000 
  1.000000   0.000000   0.000000 
  0.000000   0.010417   0.000000 
  0.010417   0.010417   0.000000 
  0.020833   0.010417   0.000000 
  0.031250   0.010417   0.000000 
  0.041667   0.010417   0.000000 
  0.052083   0.010417   0.000000 
  0.062500   0.010417   0.000000 
  0.072917   0.010417   0.000000 
  0.083333   0.010417   0.000000 
  0.093750   0.010417   0.000000 
  0.104167   0.010417   0.000000 
  0.114583   0.010417   0.000000 
  0.125000   0.010417   0.000000 
  0.135417   0.010417   0.000000 
  0.145833   0.010417   0.000000 
  0.156250   0.010417   0.000000 
  0.166667   0.010417   0.000000 
  0.177083   0.010417   0.000000 
  0.187500   0.010417   0.000000 
  0.197917   0.010417   0.000000 
  0.208333   0.010417   0.000000 
  0.218750   0.010417   0.000000 
  0.229167   0.010417   0.000000 
  0.239583   0.010417   0.000000 
  0.250000   0.010417   0.000000 
  0.260417   0.010417   0.000000 
  0.270833   0.010417   0.000000 
  0.281250   0.010417   0.000000 
  0.291667   0.010417   0.000000 
  0.302083   0.010417   0.000000 
  0.312500   0.010417   0.000000 
  0.322917   0.010417   0.000000 
  0.333333   0.010417   0.000000 
  0.343750   0.010417   0.000000 
  0.354167   0.010417   0.000000 
  0.364583   0.010417   0.000000 
  0.375000   0.010417   0.000000 
  0.385417   0.010417   0.000000 
  0.395833   0.010417   0.000000 
  0.406250   0.010417   0.000000 
  0.416667   0.010417   0.000000 
  0.427083   0.010417   0.000000 
  0.437500   0.010417   0.000000 
  0.447917   0.010417   0.000000 
  0.458333   0.010417   0.000000 
  0.468750   0.010417   0.000000 
  0.479167   0.010417   0.000000 
  0.489583   0.010417   0.000000 
  0.500000   0.010417   0.000000 
  0.510417   0.010417   0.000000 
  0.520833   0.010417   0.000000 
  0.531250   0.010417   0.000000 
  0.541667   0.010417   0.000000 
  0.552083   0.010417   0.000000 
  0.562500   0.010417   0.000000 
  0.572917   0.010417   0.000000 
  0.583333   0.010417   0.000000 
  0.593750   0.010417   0.000000 
  0.604167   0.010417   0.000000 
  0.614583   0.010417   0.000000 
  0.625000   0.010417   0.000000 
  0.635417   0.010417   0.000000 
  0.645833   0.010417   0.000000 
  0.656250   0.010417   0.000000 
  0.666667   0.010417   0.000000 
  0.677083   0.010417   0.000000 
  0.687500   0.010417   0.000000 
  0.697917   0.010417   0.000000 
  0.708333   0.010417   0.000000 
  0.718750   0.010417   0.000000 
  0.729167   0.010417   0.000000 
  0.739583   0.010417   0.000000 
  0.750000   0.010417   0.000000 
  0.760417   0.010417   0.000000 
  0.770833   0.010417   0.000000 
  0.781250   0.010417   0.000000 
  0.791667   0.010417   0.000000 
  0.802083   0.010417   0.000000 
  0.812500   0.010417   0.000000 
  0.822917   0.010417   0.000000 
  0.833333   0.010417   0.000000 
  0.843750   0.010417   0.000000 
  0.854167   0.010417   0.000000 
  0.864583   0.010417   0.000000 
  0.875000   0.010417   0.000000 
  0.885417   0.010417   0.000000 
  0.895833   0.010417   0.000000 
  0.906250   0.010417   0.000000 
  0.916667   0.010417   0.000000 
  0.927083   0.010417   0.000000 
  0.937500   0.010417   0.000000 
  0.947917   0.010417   0.000000 
  0.958333   0.010417   0.000000 
  0.968750   0.010417   0.000000 
  0.979167   0.010417   0.000000 
  0.989583   0.010417   0.000000 
  1.000000   0.010417   0.000000 
  0.000000   0.020833   0.000000 
  0.010417   0.020833   0.000000 
  0.020833   0.020833   0.000000 
  0.031250   0.020833   0.000000 
  0.041667   0.020833   0.000000 
  0.052083   0.020833   0.000000 
  0.062500   0.020833   0.000000 
  0.072917   0.020833   0.000000 
  0.083333   0.020833   0.000000 
  0.093750   0.020833   0.000000 
  0.104167   0.020833   0.000000 
  0.114583   0.020833   0.000000 
  0.125000   0.020833   0.000000 
  0.135417   0.020833   0.000000 
  0.145833   0.020833   0.000000 
  0.156250   0.020833   0.000000 
  0.166667   0.020833   0.000000 
  0.177083   0.020833   0.000000 
  0.187500   0.020833   0.000000 
  0.197917   0.020833   0.000000 
  0.208333   0.020833   0.000000 
  0.218750   0.020833   0.000000 
  0.229167   0.020833   0.000000 
  0.239583   0.020833   0.000000 
  0.250000   0.020833   0.000000 
  0.260417   0.020833   0.000000 
  0.270833   0.020833   0.000000 
  0.281250   0.020833   0.000000 
  0.291667   0.020833   0.000000 
  0.302083   0.020833   0.000000 
  0.312500   0.020833   0.000000 
  0.322917   0.020833   0.000000 
  0.333333   0.020833   0.000000 
  0.343750   0.020833   0.000000 
  0.354167   0.020833   0.000000 
  0.364583   0.020833   0.000000 
  0.375000   0.020833   0.000000 
  0.385417   0.020833   0.000000 
  0.395833   0.020833   0.000000 
  0.406250   0.020833   0.000000 
  0.416667   0.020833   0.000000 
  0.427083   0.020833   0.000000 
  0.437500   0.020833   0.000000 
  0.447917   0.020833   0.000000 
  0.458333   0.020833   0.000000 
  0.468750   0.020833   0.000000 
  0.479167   0.020833   0.000000 
  0.489583   0.020833   0.000000 
  0.500000   0.020833   0.000000 
  0.510417   0.020833   0.000000 
  0.520833   0.020833   0.000000 
  0.531250   0.020833   0.000000 
  0.541667   0.020833   0.000000 
  0.552083   0.020833   0.000000 
  0.562500   0.020833   0.000000 
  0.572917   0.020833   0.000000 
  0.583333   0.020833   0.000000 
  0.593750   0.020833   0.000000 
  0.604167   0.020833   0.000000 
  0.614583   0.020833   0.000000 
  0.625000   0.020833   0.000000 
  0.635417   0.020833   0.000000 
  0.645833   0.020833   0.000000 
  0.656250   0.020833   0.000000 
  0.666667   0.020833   0.000000 
  0.677083   0.020833   0.000000 
  0.687500   0.020833   0.000000 
  0.697917   0.020833   0.000000 
  0.708333   0.020833   0.000000 
  0.718750   0.020833   0.000000 
  0.729167   0.020833   0.000000 
  0.739583   0.020833   0.000000 
  0.750000   0.020833   0.000000 
  0.760417   0.020833   0.000000 
  0.770833   0.020833   0.000000 
  0.781250   0.020833   0.000000 
  0.791667   0.020833   0.000000 
  0.802083   0.020833   0.000000 
  0.812500   0.020833   0.000000 
  0.822917   0.020833   0.000000 
  0.833333   0.020833   0.000000 
  0.843750   0.020833   0.000000 
  0.854167   0.020833   0.000000 
  0.864583   0.020833   0.000000 
  0.875000   0.020833   0.000000 
  0.885417   0.020833   0.000000 
  0.895833   0.020833   0.000000 
  0.906250   0.020833   0.000000 
  0.916667   0.020833   0.000000 
  0.927083   0.020833   0.000000 
  0.937500   0.020833   0.000000 
  0.947917   0.020833   0.000000 
  0.958333   0.020833   0.000000 
[...]
<PointData Scalars='scalars'>
<DataArray type='Float32' NumberOfComponents='3' Name='Velocity' Format='ascii'> 
0.000000e+00 0.000000e+00 0.000000e+00 
8.222080e-02 0.000000e+00 0.000000e+00 
1.648160e-01 0.000000e+00 0.000000e+00 
2.476952e-01 0.000000e+00 0.000000e+00 
3.304578e-01 0.000000e+00 0.000000e+00 
4.126336e-01 0.000000e+00 0.000000e+00 
4.940168e-01 0.000000e+00 0.000000e+00 
5.747197e-01 0.000000e+00 0.000000e+00 
6.548030e-01 0.000000e+00 0.000000e+00 
7.343711e-01 0.000000e+00 0.000000e+00 
8.136541e-01 0.000000e+00 0.000000e+00 
8.925870e-01 0.000000e+00 0.000000e+00 
9.707210e-01 0.000000e+00 0.000000e+00 
1.047492e+00 0.000000e+00 0.000000e+00 
1.122609e+00 0.000000e+00 0.000000e+00 
1.196165e+00 0.000000e+00 0.000000e+00 
1.268329e+00 0.000000e+00 0.000000e+00 
1.339250e+00 0.000000e+00 0.000000e+00 
1.408957e+00 0.000000e+00 0.000000e+00 
1.477227e+00 0.000000e+00 0.000000e+00 
1.543742e+00 0.000000e+00 0.000000e+00 
1.608241e+00 0.000000e+00 0.000000e+00 
1.670614e+00 0.000000e+00 0.000000e+00 
1.731131e+00 0.000000e+00 0.000000e+00 
1.790128e+00 0.000000e+00 0.000000e+00 
1.847570e+00 0.000000e+00 0.000000e+00 
1.903058e+00 0.000000e+00 0.000000e+00 
1.956293e+00 0.000000e+00 0.000000e+00 
2.007485e+00 0.000000e+00 0.000000e+00 
2.056805e+00 0.000000e+00 0.000000e+00 
2.103926e+00 0.000000e+00 0.000000e+00 
2.148514e+00 0.000000e+00 0.000000e+00 
2.190684e+00 0.000000e+00 0.000000e+00 
2.230724e+00 0.000000e+00 0.000000e+00 
2.268603e+00 0.000000e+00 0.000000e+00 
2.304050e+00 0.000000e+00 0.000000e+00 
2.336903e+00 0.000000e+00 0.000000e+00 
2.367093e+00 0.000000e+00 0.000000e+00 
2.394448e+00 0.000000e+00 0.000000e+00 
2.419032e+00 0.000000e+00 0.000000e+00 
2.441254e+00 0.000000e+00 0.000000e+00 
2.461497e+00 0.000000e+00 0.000000e+00 
2.479809e+00 0.000000e+00 0.000000e+00 
2.495758e+00 0.000000e+00 0.000000e+00 
2.508890e+00 0.000000e+00 0.000000e+00 
2.518814e+00 0.000000e+00 0.000000e+00 
2.525179e+00 0.000000e+00 0.000000e+00 
2.528195e+00 0.000000e+00 0.000000e+00 
2.528457e+00 0.000000e+00 0.000000e+00 
2.526393e+00 0.000000e+00 0.000000e+00 
2.521822e+00 0.000000e+00 0.000000e+00 
2.514354e+00 0.000000e+00 0.000000e+00 
2.504115e+00 0.000000e+00 0.000000e+00 
2.491459e+00 0.000000e+00 0.000000e+00 
2.476506e+00 0.000000e+00 0.000000e+00 
2.459109e+00 0.000000e+00 0.000000e+00 
2.439077e+00 0.000000e+00 0.000000e+00 
2.416326e+00 0.000000e+00 0.000000e+00 
2.390944e+00 0.000000e+00 0.000000e+00 
2.363051e+00 0.000000e+00 0.000000e+00 
2.332555e+00 0.000000e+00 0.000000e+00 
2.299480e+00 0.000000e+00 0.000000e+00 
2.264126e+00 0.000000e+00 0.000000e+00 
2.226651e+00 0.000000e+00 0.000000e+00 
2.186852e+00 0.000000e+00 0.000000e+00 
2.144491e+00 0.000000e+00 0.000000e+00 
2.099651e+00 0.000000e+00 0.000000e+00 
2.052630e+00 0.000000e+00 0.000000e+00 
2.003573e+00 0.000000e+00 0.000000e+00 
1.952557e+00 0.000000e+00 0.000000e+00 
1.899828e+00 0.000000e+00 0.000000e+00 
1.845383e+00 0.000000e+00 0.000000e+00 
1.788901e+00 0.000000e+00 0.000000e+00 
1.730079e+00 0.000000e+00 0.000000e+00 
1.668947e+00 0.000000e+00 0.000000e+00 
1.605783e+00 0.000000e+00 0.000000e+00 
1.540724e+00 0.000000e+00 0.000000e+00 
1.473924e+00 0.000000e+00 0.000000e+00 
1.405553e+00 0.000000e+00 0.000000e+00 
1.335902e+00 0.000000e+00 0.000000e+00 
1.265399e+00 0.000000e+00 0.000000e+00 
1.193869e+00 0.000000e+00 0.000000e+00 
1.120596e+00 0.000000e+00 0.000000e+00 
1.045235e+00 0.000000e+00 0.000000e+00 
9.682149e-01 0.000000e+00 0.000000e+00 
8.903023e-01 0.000000e+00 0.000000e+00 
8.118100e-01 0.000000e+00 0.000000e+00 
7.325774e-01 0.000000e+00 0.000000e+00 
6.524064e-01 0.000000e+00 0.000000e+00 
5.714235e-01 0.000000e+00 0.000000e+00 
4.900703e-01 0.000000e+00 0.000000e+00 
4.087253e-01 0.000000e+00 0.000000e+00 
3.274916e-01 0.000000e+00 0.000000e+00 
2.461519e-01 0.000000e+00 0.000000e+00 
1.644814e-01 0.000000e+00 0.000000e+00 
8.240301e-02 0.000000e+00 0.000000e+00 
0.000000e+00 0.000000e+00 0.000000e+00 
0.000000e+00 -8.220482e-02 0.000000e+00 
8.224609e-02 -8.232424e-02 0.000000e+00 
1.648334e-01 -8.276528e-02 0.000000e+00 
2.476480e-01 -8.297378e-02 0.000000e+00 
3.302844e-01 -8.243189e-02 0.000000e+00 
4.123071e-01 -8.168379e-02 0.000000e+00 
4.935627e-01 -8.096736e-02 0.000000e+00 
5.742232e-01 -8.042029e-02 0.000000e+00 
6.544056e-01 -7.996215e-02 0.000000e+00 
7.341406e-01 -7.935059e-02 0.000000e+00 
8.134492e-01 -7.909432e-02 0.000000e+00 
8.921720e-01 -7.865780e-02 0.000000e+00 
9.700302e-01 -7.735366e-02 0.000000e+00 
1.046690e+00 -7.591839e-02 0.000000e+00 
1.121899e+00 -7.447259e-02 0.000000e+00 
1.195607e+00 -7.282494e-02 0.000000e+00 
1.267817e+00 -7.151611e-02 0.000000e+00 
1.338604e+00 -7.028287e-02 0.000000e+00 
1.408065e+00 -6.884976e-02 0.000000e+00 
1.476129e+00 -6.744933e-02 0.000000e+00 
1.542592e+00 -6.557241e-02 0.000000e+00 
1.607190e+00 -6.344451e-02 0.000000e+00 
1.669721e+00 -6.152097e-02 0.000000e+00 
1.730330e+00 -5.964917e-02 0.000000e+00 
1.789300e+00 -5.817196e-02 0.000000e+00 
1.846648e+00 -5.666659e-02 0.000000e+00 
1.902094e+00 -5.440945e-02 0.000000e+00 
1.955382e+00 -5.200208e-02 0.000000e+00 
2.006587e+00 -5.025065e-02 0.000000e+00 
2.055766e+00 -4.840874e-02 0.000000e+00 
2.102662e+00 -4.570754e-02 0.000000e+00 
2.147095e+00 -4.316743e-02 0.000000e+00 
2.189253e+00 -4.115175e-02 0.000000e+00 
2.229380e+00 -3.909811e-02 0.000000e+00 
2.267345e+00 -3.674604e-02 0.000000e+00 
2.302793e+00 -3.410371e-02 0.000000e+00 
2.335562e+00 -3.145224e-02 0.000000e+00 
2.365677e+00 -2.886454e-02 0.000000e+00 
2.393086e+00 -2.604075e-02 0.000000e+00 
2.417856e+00 -2.325957e-02 0.000000e+00 
2.440231e+00 -2.128015e-02 0.000000e+00 
2.460435e+00 -1.933243e-02 0.000000e+00 
2.478527e+00 -1.700951e-02 0.000000e+00 
2.494213e+00 -1.455990e-02 0.000000e+00 
2.507152e+00 -1.149053e-02 0.000000e+00 
2.517036e+00 -8.233494e-03 0.000000e+00 
2.523595e+00 -4.873761e-03 0.000000e+00 
2.526933e+00 -1.447383e-03 0.000000e+00 
2.527319e+00 1.015403e-03 0.000000e+00 
2.525057e+00 3.144005e-03 0.000000e+00 
2.520305e+00 6.043028e-03 0.000000e+00 
2.512979e+00 8.947373e-03 0.000000e+00 
2.503008e+00 1.129410e-02 0.000000e+00 
2.490404e+00 1.379779e-02 0.000000e+00 
2.475253e+00 1.637437e-02 0.000000e+00 
2.457611e+00 1.869765e-02 0.000000e+00 
2.437471e+00 2.138771e-02 0.000000e+00 
2.414779e+00 2.412270e-02 0.000000e+00 
2.389499e+00 2.659797e-02 0.000000e+00 
2.361645e+00 2.909670e-02 0.000000e+00 
2.331222e+00 3.172079e-02 0.000000e+00 
2.298329e+00 3.431263e-02 0.000000e+00 
2.263122e+00 3.636888e-02 0.000000e+00 
2.225636e+00 3.848862e-02 0.000000e+00 
2.185770e+00 4.112057e-02 0.000000e+00 
2.143429e+00 4.369773e-02 0.000000e+00 
2.098668e+00 4.593144e-02 0.000000e+00 
2.051714e+00 4.798858e-02 0.000000e+00 
2.002762e+00 4.994949e-02 0.000000e+00 
1.951886e+00 5.195319e-02 0.000000e+00 
1.899135e+00 5.367864e-02 0.000000e+00 
1.844423e+00 5.537891e-02 0.000000e+00 
1.787645e+00 5.778426e-02 0.000000e+00 
1.728750e+00 6.006837e-02 0.000000e+00 
1.667743e+00 6.204277e-02 0.000000e+00 
1.604707e+00 6.408447e-02 0.000000e+00 
1.539678e+00 6.602268e-02 0.000000e+00 
1.472869e+00 6.759759e-02 0.000000e+00 
1.404622e+00 6.888830e-02 0.000000e+00 
1.335251e+00 7.015105e-02 0.000000e+00 
1.264893e+00 7.098670e-02 0.000000e+00 
1.193184e+00 7.214256e-02 0.000000e+00 
1.119642e+00 7.448952e-02 0.000000e+00 
1.044256e+00 7.646994e-02 0.000000e+00 
9.674780e-01 7.730141e-02 0.000000e+00 
8.898445e-01 7.806915e-02 0.000000e+00 
8.114516e-01 7.892492e-02 0.000000e+00 
7.321403e-01 7.967872e-02 0.000000e+00 
6.519714e-01 8.055256e-02 0.000000e+00 
5.712285e-01 8.124086e-02 0.000000e+00 
4.901230e-01 8.129012e-02 0.000000e+00 
4.087681e-01 8.127756e-02 0.000000e+00 
3.273251e-01 8.146317e-02 0.000000e+00 
2.458133e-01 8.146099e-02 0.000000e+00 
1.641324e-01 8.182737e-02 0.000000e+00 
8.218485e-02 8.225655e-02 0.000000e+00 
0.000000e+00 8.227416e-02 0.000000e+00 
0.000000e+00 -1.645498e-01 0.000000e+00 
8.233803e-02 -1.646858e-01 0.000000e+00 
1.648492e-01 -1.653875e-01 0.000000e+00 
2.474326e-01 -1.657431e-01 0.000000e+00 
3.297456e-01 -1.646379e-01 0.000000e+00 
4.114578e-01 -1.631041e-01 0.000000e+00 
4.925105e-01 -1.618977e-01 0.000000e+00 
5.730920e-01 -1.608431e-01 0.000000e+00 
6.533409e-01 -1.599183e-01 0.000000e+00 
7.331877e-01 -1.589840e-01 0.000000e+00 
8.124113e-01 -1.580405e-01 0.000000e+00 
8.907642e-01 -1.567053e-01 0.000000e+00 
9.681658e-01 -1.545130e-01 0.000000e+00 
1.044574e+00 -1.518727e-01 0.000000e+00 
1.119828e+00 -1.489767e-01 0.000000e+00 
1.193680e+00 -1.458896e-01 0.000000e+00 
1.265897e+00 -1.429669e-01 0.000000e+00 
1.336458e+00 -1.401485e-01 0.000000e+00 
1.405502e+00 -1.374382e-01 0.000000e+00 
1.473179e+00 -1.346200e-01 0.000000e+00 
1.539479e+00 -1.310829e-01 0.000000e+00 
1.604161e+00 -1.271883e-01 0.000000e+00 
1.666945e+00 -1.232240e-01 0.000000e+00 
1.727750e+00 -1.193685e-01 0.000000e+00 
1.786697e+00 -1.163083e-01 0.000000e+00 
1.843890e+00 -1.131175e-01 0.000000e+00 
1.899222e+00 -1.087476e-01 0.000000e+00 
1.952490e+00 -1.041701e-01 0.000000e+00 
2.003611e+00 -1.003556e-01 0.000000e+00 
2.052518e+00 -9.639249e-02 0.000000e+00 
2.099054e+00 -9.126160e-02 0.000000e+00 
2.143245e+00 -8.620869e-02 0.000000e+00 
2.185373e+00 -8.231635e-02 0.000000e+00 
2.225570e+00 -7.838956e-02 0.000000e+00 
2.263573e+00 -7.344524e-02 0.000000e+00 
2.298967e+00 -6.809282e-02 0.000000e+00 
2.331610e+00 -6.287089e-02 0.000000e+00 
2.361637e+00 -5.764189e-02 0.000000e+00 
2.389146e+00 -5.219252e-02 0.000000e+00 
2.414174e+00 -4.694569e-02 0.000000e+00 
2.436735e+00 -4.257917e-02 0.000000e+00 
2.456841e+00 -3.835543e-02 0.000000e+00 
2.474524e+00 -3.372278e-02 0.000000e+00 
2.489715e+00 -2.868632e-02 0.000000e+00 
2.502270e+00 -2.280537e-02 0.000000e+00 
2.512037e+00 -1.653021e-02 0.000000e+00 
2.518897e+00 -9.983830e-03 0.000000e+00 
2.522765e+00 -3.565391e-03 0.000000e+00 
2.523472e+00 1.849723e-03 0.000000e+00 
2.521132e+00 6.942142e-03 0.000000e+00 
2.516208e+00 1.212415e-02 0.000000e+00 
2.509006e+00 1.726875e-02 0.000000e+00 
2.499324e+00 2.254363e-02 0.000000e+00 
2.486789e+00 2.783107e-02 0.000000e+00 
2.471393e+00 3.286289e-02 0.000000e+00 
2.453433e+00 3.775438e-02 0.000000e+00 
2.433130e+00 4.285346e-02 0.000000e+00 
2.410481e+00 4.798756e-02 0.000000e+00 
2.385337e+00 5.311496e-02 0.000000e+00 
2.357596e+00 5.822585e-02 0.000000e+00 
2.327363e+00 6.326439e-02 0.000000e+00 
2.294772e+00 6.818116e-02 0.000000e+00 
2.259786e+00 7.267497e-02 0.000000e+00 
2.222321e+00 7.719605e-02 0.000000e+00 
2.182403e+00 8.222727e-02 0.000000e+00 
2.140147e+00 8.719000e-02 0.000000e+00 
2.095610e+00 9.166743e-02 0.000000e+00 
2.048879e+00 9.590129e-02 0.000000e+00 
2.000135e+00 9.980455e-02 0.000000e+00 
1.949428e+00 1.036310e-01 0.000000e+00 
1.896587e+00 1.075140e-01 0.000000e+00 
1.841478e+00 1.114672e-01 0.000000e+00 
1.784261e+00 1.157604e-01 0.000000e+00 
1.725192e+00 1.199768e-01 0.000000e+00 
1.664306e+00 1.240532e-01 0.000000e+00 
1.601476e+00 1.280082e-01 0.000000e+00 
1.536624e+00 1.318515e-01 0.000000e+00 
1.469993e+00 1.352065e-01 0.000000e+00 
1.402078e+00 1.375365e-01 0.000000e+00 
1.333129e+00 1.396720e-01 0.000000e+00 
1.262912e+00 1.420516e-01 0.000000e+00 
1.190954e+00 1.449477e-01 0.000000e+00 
1.117106e+00 1.490069e-01 0.000000e+00 
1.041749e+00 1.526282e-01 0.000000e+00 
9.653692e-01 1.544001e-01 0.000000e+00 
8.881941e-01 1.557031e-01 0.000000e+00 
8.100614e-01 1.576704e-01 0.000000e+00 
7.308455e-01 1.596129e-01 0.000000e+00 
6.508852e-01 1.608740e-01 0.000000e+00 
5.705848e-01 1.617780e-01 0.000000e+00 
4.898900e-01 1.624463e-01 0.000000e+00 
4.086284e-01 1.628830e-01 0.000000e+00 
3.269929e-01 1.629956e-01 0.000000e+00 
2.452835e-01 1.630659e-01 0.000000e+00 
1.635853e-01 1.636465e-01 0.000000e+00 
8.182298e-02 1.641906e-01 0.000000e+00 
0.000000e+00 1.643068e-01 0.000000e+00 
0.000000e+00 -2.470519e-01 0.000000e+00 
8.256539e-02 -2.470892e-01 0.000000e+00 
1.649157e-01 -2.477658e-01 0.000000e+00 
2.469756e-01 -2.480630e-01 0.000000e+00 
3.287414e-01 -2.464792e-01 0.000000e+00 
4.101875e-01 -2.443563e-01 0.000000e+00 
4.911993e-01 -2.427265e-01 0.000000e+00 
5.716968e-01 -2.411607e-01 0.000000e+00 
6.517276e-01 -2.397924e-01 0.000000e+00 
7.312814e-01 -2.384986e-01 0.000000e+00 
8.101868e-01 -2.367144e-01 0.000000e+00 
8.882248e-01 -2.343637e-01 0.000000e+00 
9.653009e-01 -2.313370e-01 0.000000e+00 
1.041391e+00 -2.276381e-01 0.000000e+00 
1.116411e+00 -2.234212e-01 0.000000e+00 
1.190111e+00 -2.189292e-01 0.000000e+00 
1.262208e+00 -2.143022e-01 0.000000e+00 
1.332630e+00 -2.097598e-01 0.000000e+00 
1.401418e+00 -2.056839e-01 0.000000e+00 
1.468747e+00 -2.014853e-01 0.000000e+00 
1.534736e+00 -1.964553e-01 0.000000e+00 
1.599270e+00 -1.910040e-01 0.000000e+00 
1.662186e+00 -1.851318e-01 0.000000e+00 
1.723254e+00 -1.792455e-01 0.000000e+00 
1.782278e+00 -1.743755e-01 0.000000e+00 
1.839278e+00 -1.693284e-01 0.000000e+00 
1.894349e+00 -1.629443e-01 0.000000e+00 
1.947458e+00 -1.562949e-01 0.000000e+00 
1.998380e+00 -1.502392e-01 0.000000e+00 
2.046946e+00 -1.440011e-01 0.000000e+00 
2.093213e+00 -1.365964e-01 0.000000e+00 
2.137380e+00 -1.292392e-01 0.000000e+00 
2.179538e+00 -1.234484e-01 0.000000e+00 
2.219556e+00 -1.175509e-01 0.000000e+00 
2.257275e+00 -1.100347e-01 0.000000e+00 
2.292528e+00 -1.020277e-01 0.000000e+00 
2.325150e+00 -9.422769e-02 0.000000e+00 
2.355158e+00 -8.638635e-02 0.000000e+00 
2.382696e+00 -7.846149e-02 0.000000e+00 
2.407814e+00 -7.081013e-02 0.000000e+00 
2.430399e+00 -6.386177e-02 0.000000e+00 
2.450335e+00 -5.708594e-02 0.000000e+00 
2.467639e+00 -5.000884e-02 0.000000e+00 
2.482400e+00 -4.241109e-02 0.000000e+00 
2.494576e+00 -3.384178e-02 0.000000e+00 
2.504107e+00 -2.479980e-02 0.000000e+00 
2.511051e+00 -1.541528e-02 0.000000e+00 
2.515308e+00 -6.184323e-03 0.000000e+00 
2.516573e+00 2.356503e-03 0.000000e+00 
2.514718e+00 1.068870e-02 0.000000e+00 
2.509924e+00 1.822737e-02 0.000000e+00 
2.502534e+00 2.556654e-02 0.000000e+00 
2.492672e+00 3.375204e-02 0.000000e+00 
2.480169e+00 4.186140e-02 0.000000e+00 
2.464876e+00 4.945660e-02 0.000000e+00 
2.446914e+00 5.697371e-02 0.000000e+00 
2.426527e+00 6.438501e-02 0.000000e+00 
2.403823e+00 7.177977e-02 0.000000e+00 
2.378718e+00 7.952811e-02 0.000000e+00 
2.351105e+00 8.723311e-02 0.000000e+00 
2.321092e+00 9.457449e-02 0.000000e+00 
2.288738e+00 1.017859e-01 0.000000e+00 
2.253880e+00 1.088899e-01 0.000000e+00 
2.216424e+00 1.159504e-01 0.000000e+00 
2.176535e+00 1.232623e-01 0.000000e+00 
2.134487e+00 1.304194e-01 0.000000e+00 
2.090347e+00 1.370949e-01 0.000000e+00 
2.044006e+00 1.435805e-01 0.000000e+00 
1.995451e+00 1.495311e-01 0.000000e+00 
1.944704e+00 1.553256e-01 0.000000e+00 
1.891705e+00 1.615421e-01 0.000000e+00 
1.836467e+00 1.678447e-01 0.000000e+00 
1.779102e+00 1.739737e-01 0.000000e+00 
1.719834e+00 1.799658e-01 0.000000e+00 
1.658837e+00 1.859825e-01 0.000000e+00 
1.596130e+00 1.916976e-01 0.000000e+00 
1.531688e+00 1.973338e-01 0.000000e+00 
1.465627e+00 2.024343e-01 0.000000e+00 
1.398202e+00 2.058343e-01 0.000000e+00 
1.329442e+00 2.090045e-01 0.000000e+00 
1.259100e+00 2.132181e-01 0.000000e+00 
1.186988e+00 2.179776e-01 0.000000e+00 
1.113203e+00 2.234985e-01 0.000000e+00 
1.038142e+00 2.284600e-01 0.000000e+00 
9.620903e-01 2.311558e-01 0.000000e+00 
8.851224e-01 2.330725e-01 0.000000e+00 
8.073015e-01 2.360949e-01 0.000000e+00 
7.286925e-01 2.391376e-01 0.000000e+00 
6.493678e-01 2.407866e-01 0.000000e+00 
5.694217e-01 2.419717e-01 0.000000e+00 
4.889588e-01 2.433308e-01 0.000000e+00 
4.080466e-01 2.443266e-01 0.000000e+00 
3.267052e-01 2.445339e-01 0.000000e+00 
2.450481e-01 2.447506e-01 0.000000e+00 
1.632860e-01 2.454248e-01 0.000000e+00 
8.158157e-02 2.459048e-01 0.000000e+00 
0.000000e+00 2.460460e-01 0.000000e+00 
0.000000e+00 -3.295976e-01 0.000000e+00 
8.260369e-02 -3.296435e-01 0.000000e+00 
1.647130e-01 -3.298472e-01 0.000000e+00 
2.462336e-01 -3.294885e-01 0.000000e+00 
3.274340e-01 -3.278714e-01 0.000000e+00 
4.085619e-01 -3.256633e-01 0.000000e+00 
4.894414e-01 -3.233726e-01 0.000000e+00 
5.697545e-01 -3.212169e-01 0.000000e+00 
6.494648e-01 -3.194886e-01 0.000000e+00 
7.286168e-01 -3.175858e-01 0.000000e+00 
8.071069e-01 -3.150092e-01 0.000000e+00 
8.847477e-01 -3.117363e-01 0.000000e+00 
9.614144e-01 -3.077110e-01 0.000000e+00 
1.037045e+00 -3.029886e-01 0.000000e+00 
1.111578e+00 -2.975645e-01 0.000000e+00 
1.184887e+00 -2.917496e-01 0.000000e+00 
1.256783e+00 -2.855156e-01 0.000000e+00 
1.327122e+00 -2.792899e-01 0.000000e+00 
1.395821e+00 -2.737030e-01 0.000000e+00 
1.462937e+00 -2.679584e-01 0.000000e+00 
1.528583e+00 -2.615775e-01 0.000000e+00 
1.592821e+00 -2.546749e-01 0.000000e+00 
1.655650e+00 -2.471059e-01 0.000000e+00 
1.716792e+00 -2.394725e-01 0.000000e+00 
1.775835e+00 -2.323694e-01 0.000000e+00 
1.832639e+00 -2.250546e-01 0.000000e+00 
1.887417e+00 -2.169271e-01 0.000000e+00 
1.940315e+00 -2.084225e-01 0.000000e+00 
1.991022e+00 -1.998852e-01 0.000000e+00 
2.039271e+00 -1.910562e-01 0.000000e+00 
2.085297e+00 -1.817106e-01 0.000000e+00 
2.129404e+00 -1.725673e-01 0.000000e+00 
2.171455e+00 -1.644175e-01 0.000000e+00 
2.211151e+00 -1.561387e-01 0.000000e+00 
2.248511e+00 -1.464541e-01 0.000000e+00 
2.283596e+00 -1.360338e-01 0.000000e+00 
2.316204e+00 -1.255274e-01 0.000000e+00 
2.346180e+00 -1.150240e-01 0.000000e+00 
2.373648e+00 -1.047615e-01 0.000000e+00 
2.398714e+00 -9.477532e-02 0.000000e+00 
2.421209e+00 -8.505473e-02 0.000000e+00 
2.440932e+00 -7.545893e-02 0.000000e+00 
2.457911e+00 -6.585986e-02 0.000000e+00 
2.472318e+00 -5.576805e-02 0.000000e+00 
2.484162e+00 -4.456247e-02 0.000000e+00 
2.493444e+00 -3.284863e-02 0.000000e+00 
2.500344e+00 -2.109714e-02 0.000000e+00 
2.504849e+00 -9.347319e-03 0.000000e+00 
2.506650e+00 2.404722e-03 0.000000e+00 
2.505372e+00 1.385046e-02 0.000000e+00 
2.500847e+00 2.425975e-02 0.000000e+00 
2.493346e+00 3.440832e-02 0.000000e+00 
2.483258e+00 4.500538e-02 0.000000e+00 
2.470767e+00 5.556680e-02 0.000000e+00 
2.455720e+00 6.599976e-02 0.000000e+00 
2.437950e+00 7.623745e-02 0.000000e+00 
2.417603e+00 8.592061e-02 0.000000e+00 
2.394901e+00 9.558414e-02 0.000000e+00 
2.369844e+00 1.058416e-01 0.000000e+00 
2.342340e+00 1.160804e-01 0.000000e+00 
2.312480e+00 1.256968e-01 0.000000e+00 
2.280279e+00 1.351690e-01 0.000000e+00 
2.245512e+00 1.450204e-01 0.000000e+00 
2.208102e+00 1.547868e-01 0.000000e+00 
2.168346e+00 1.641187e-01 0.000000e+00 
2.126581e+00 1.732289e-01 0.000000e+00 
2.082828e+00 1.821799e-01 0.000000e+00 
2.036829e+00 1.908947e-01 0.000000e+00 
1.988407e+00 1.991601e-01 0.000000e+00 
1.937597e+00 2.072858e-01 0.000000e+00 
1.884507e+00 2.157140e-01 0.000000e+00 
1.829278e+00 2.241329e-01 0.000000e+00 
1.771943e+00 2.323347e-01 0.000000e+00 
1.712627e+00 2.402310e-01 0.000000e+00 
1.651606e+00 2.477795e-01 0.000000e+00 
1.589101e+00 2.550601e-01 0.000000e+00 
1.525199e+00 2.622791e-01 0.000000e+00 
1.459798e+00 2.688926e-01 0.000000e+00 
1.392812e+00 2.738187e-01 0.000000e+00 
1.324143e+00 2.784983e-01 0.000000e+00 
1.253664e+00 2.845053e-01 0.000000e+00 
1.181502e+00 2.910511e-01 0.000000e+00 
1.107985e+00 2.977960e-01 0.000000e+00 
1.033403e+00 3.037018e-01 0.000000e+00 
9.577553e-01 3.074916e-01 0.000000e+00 
8.810462e-01 3.104957e-01 0.000000e+00 
8.036253e-01 3.140778e-01 0.000000e+00 
7.257196e-01 3.175416e-01 0.000000e+00 
6.471077e-01 3.201660e-01 0.000000e+00 
5.675847e-01 3.222134e-01 0.000000e+00 
4.874316e-01 3.238253e-01 0.000000e+00 
4.069811e-01 3.250478e-01 0.000000e+00 
3.261173e-01 3.259076e-01 0.000000e+00 
2.447104e-01 3.265685e-01 0.000000e+00 
1.630183e-01 3.271001e-01 0.000000e+00 
8.141339e-02 3.274359e-01 0.000000e+00 
0.000000e+00 3.275777e-01 0.000000e+00 
0.000000e+00 -4.119036e-01 0.000000e+00 
8.208439e-02 -4.119285e-01 0.000000e+00 
1.638434e-01 -4.115925e-01 0.000000e+00 
2.451647e-01 -4.105128e-01 0.000000e+00 
3.260571e-01 -4.088325e-01 0.000000e+00 
4.066414e-01 -4.065747e-01 0.000000e+00 
4.869740e-01 -4.037220e-01 0.000000e+00 